<?xml version="1.0" encoding="UTF-8"?>

<!-- generated on 06/14/20 16:50:02 by Eclipse SUMO GUI Version 1.4.0
<configuration xmlns:xsi="http://www.w3.org/2001/XMLSchema-instance" xsi:noNamespaceSchemaLocation="http://sumo.dlr.de/xsd/sumoConfiguration.xsd">

    <input>
        <net-file value="data/models/YarCircle/osm.net.xml"/>
        <route-files value="data/models/YarCircle/osm.passenger.trips.xml,data/models/YarCircle/osm.bus.trips.xml"/>
        <additional-files value="data/averagesW.xml"/>
    </input>

    <output>
        <tripinfo-output value="tripinfo.xml"/>
    </output>

    <processing>
        <ignore-route-errors value="true"/>
        <collision.mingap-factor value="0"/>
    </processing>

    <routing>
        <device.rerouting.adaptation-steps value="180"/>
    </routing>

    <report>
        <verbose value="true"/>
        <no-warnings value="true"/>
        <duration-log.statistics value="true"/>
        <no-step-log value="true"/>
    </report>

    <traci_server>
        <remote-port value="50103"/>
    </traci_server>

    <gui_only>
        <gui-settings-file value="data/models/YarCircle/osm.view.xml"/>
    </gui_only>

</configuration>
-->

<tripinfos xmlns:xsi="http://www.w3.org/2001/XMLSchema-instance" xsi:noNamespaceSchemaLocation="http://sumo.dlr.de/xsd/tripinfo_file.xsd">
    <tripinfo id="veh1" depart="4.00" departLane="585506249#0_0" departPos="5.10" departSpeed="26.07" departDelay="-0.52" arrival="39.00" arrivalLane="665146714#4_0" arrivalPos="421.36" arrivalSpeed="21.99" duration="35.00" routeLength="646.87" waitingTime="0.00" waitingCount="0" stopTime="0.00" timeLoss="4.80" rerouteNo="1" devices="tripinfo_veh1 routing_veh1" vType="veh_passenger@veh1" speedFactor="1.00" vaporized=""/>
    <tripinfo id="veh0" depart="0.00" departLane="-99952877_0" departPos="4.06" departSpeed="0.00" departDelay="0.00" arrival="82.00" arrivalLane="127497306#3_0" arrivalPos="463.62" arrivalSpeed="27.43" duration="82.00" routeLength="596.21" waitingTime="45.00" waitingCount="1" stopTime="0.00" timeLoss="57.01" rerouteNo="1" devices="tripinfo_veh0 routing_veh0" vType="veh_passenger@veh0" speedFactor="1.00" vaporized=""/>
    <tripinfo id="veh2" depart="9.00" departLane="-23559783_1" departPos="5.10" departSpeed="28.07" departDelay="-0.04" arrival="83.00" arrivalLane="127497306#3_1" arrivalPos="463.62" arrivalSpeed="27.26" duration="74.00" routeLength="791.24" waitingTime="24.00" waitingCount="1" stopTime="0.00" timeLoss="40.86" rerouteNo="1" devices="tripinfo_veh2 routing_veh2" vType="veh_passenger@veh2" speedFactor="1.00" vaporized=""/>
    <tripinfo id="veh3" depart="13.00" departLane="665146708_3" departPos="5.10" departSpeed="0.00" departDelay="-0.56" arrival="84.00" arrivalLane="665146714#4_0" arrivalPos="421.36" arrivalSpeed="21.84" duration="71.00" routeLength="740.12" waitingTime="15.00" waitingCount="1" stopTime="0.00" timeLoss="34.04" rerouteNo="1" devices="tripinfo_veh3 routing_veh3" vType="veh_passenger@veh3" speedFactor="1.00" vaporized=""/>
    <tripinfo id="veh7" depart="31.00" departLane="-665146715_0" departPos="5.10" departSpeed="12.31" departDelay="-0.64" arrival="85.00" arrivalLane="127497306#3_0" arrivalPos="463.62" arrivalSpeed="27.27" duration="54.00" routeLength="629.52" waitingTime="3.00" waitingCount="2" stopTime="0.00" timeLoss="25.91" rerouteNo="1" devices="tripinfo_veh7 routing_veh7" vType="veh_passenger@veh7" speedFactor="1.00" vaporized=""/>
    <tripinfo id="veh5" depart="22.00" departLane="665146708_3" departPos="5.10" departSpeed="0.00" departDelay="-0.60" arrival="87.00" arrivalLane="665146714#4_0" arrivalPos="421.36" arrivalSpeed="21.98" duration="65.00" routeLength="740.12" waitingTime="1.00" waitingCount="1" stopTime="0.00" timeLoss="27.74" rerouteNo="1" devices="tripinfo_veh5 routing_veh5" vType="veh_passenger@veh5" speedFactor="1.00" vaporized=""/>
    <tripinfo id="veh12" depart="54.00" departLane="45014977_0" departPos="0.20" departSpeed="0.00" departDelay="-0.25" arrival="103.00" arrivalLane="665146714#4_0" arrivalPos="421.36" arrivalSpeed="21.50" duration="49.00" routeLength="763.12" waitingTime="0.00" waitingCount="0" stopTime="0.00" timeLoss="10.97" rerouteNo="1" devices="tripinfo_veh12 routing_veh12" vType="veh_passenger@veh12" speedFactor="1.00" vaporized=""/>
    <tripinfo id="veh6" depart="27.00" departLane="585506249#0_1" departPos="5.10" departSpeed="29.05" departDelay="-0.12" arrival="107.00" arrivalLane="-77856541#0_0" arrivalPos="105.43" arrivalSpeed="21.98" duration="80.00" routeLength="352.98" waitingTime="50.00" waitingCount="1" stopTime="0.00" timeLoss="63.74" rerouteNo="1" devices="tripinfo_veh6 routing_veh6" vType="veh_passenger@veh6" speedFactor="1.00" vaporized=""/>
    <tripinfo id="veh24" depart="108.00" departLane="221348491#0_0" departPos="0.10" departSpeed="0.00" departDelay="-0.49" arrival="137.00" arrivalLane="665146714#4_0" arrivalPos="421.36" arrivalSpeed="21.83" duration="29.00" routeLength="522.62" waitingTime="0.00" waitingCount="0" stopTime="0.00" timeLoss="4.82" rerouteNo="1" devices="tripinfo_veh24 routing_veh24" vType="veh_passenger@veh24" speedFactor="1.00" vaporized=""/>
    <tripinfo id="veh11" depart="49.00" departLane="-665146714#5_0" departPos="5.10" departSpeed="22.80" departDelay="-0.72" arrival="155.00" arrivalLane="23559783_1" arrivalPos="74.92" arrivalSpeed="19.26" duration="106.00" routeLength="846.50" waitingTime="49.00" waitingCount="1" stopTime="0.00" timeLoss="66.98" rerouteNo="1" devices="tripinfo_veh11 routing_veh11" vType="veh_passenger@veh11" speedFactor="1.00" vaporized=""/>
    <tripinfo id="veh18" depart="81.00" departLane="77856541#0_0" departPos="5.10" departSpeed="20.80" departDelay="-0.37" arrival="175.00" arrivalLane="99952620#1_0" arrivalPos="63.37" arrivalSpeed="19.12" duration="94.00" routeLength="357.62" waitingTime="57.00" waitingCount="2" stopTime="0.00" timeLoss="77.76" rerouteNo="1" devices="tripinfo_veh18 routing_veh18" vType="veh_passenger@veh18" speedFactor="1.00" vaporized=""/>
    <tripinfo id="bus0" depart="0.00" departLane="-665146714#5_0" departPos="12.10" departSpeed="22.22" departDelay="0.00" arrival="181.00" arrivalLane="99952620#1_1" arrivalPos="63.37" arrivalSpeed="14.05" duration="181.00" routeLength="841.19" waitingTime="114.00" waitingCount="2" stopTime="0.00" timeLoss="142.42" rerouteNo="1" devices="tripinfo_bus0 routing_bus0" vType="bus_bus@bus0" speedFactor="1.00" vaporized=""/>
    <tripinfo id="veh14" depart="63.00" departLane="665146713_0" departPos="5.10" departSpeed="0.00" departDelay="-0.29" arrival="209.00" arrivalLane="127497306#3_2" arrivalPos="463.62" arrivalSpeed="26.50" duration="146.00" routeLength="686.52" waitingTime="100.00" waitingCount="1" stopTime="0.00" timeLoss="116.81" rerouteNo="1" devices="tripinfo_veh14 routing_veh14" vType="veh_passenger@veh14" speedFactor="1.00" vaporized=""/>
    <tripinfo id="veh15" depart="67.00" departLane="-665146715_0" departPos="5.10" departSpeed="12.87" departDelay="-0.81" arrival="209.00" arrivalLane="127497306#3_0" arrivalPos="463.62" arrivalSpeed="27.01" duration="142.00" routeLength="629.52" waitingTime="96.00" waitingCount="2" stopTime="0.00" timeLoss="114.48" rerouteNo="1" devices="tripinfo_veh15 routing_veh15" vType="veh_passenger@veh15" speedFactor="1.00" vaporized=""/>
    <tripinfo id="veh16" depart="72.00" departLane="45014977_0" departPos="0.20" departSpeed="0.00" departDelay="-0.33" arrival="209.00" arrivalLane="127497306#3_1" arrivalPos="463.62" arrivalSpeed="27.05" duration="137.00" routeLength="562.99" waitingTime="102.00" waitingCount="1" stopTime="0.00" timeLoss="116.04" rerouteNo="1" devices="tripinfo_veh16 routing_veh16" vType="veh_passenger@veh16" speedFactor="1.00" vaporized=""/>
    <tripinfo id="veh21" depart="94.00" departLane="127497306#0_0" departPos="5.10" departSpeed="0.00" departDelay="-0.93" arrival="211.00" arrivalLane="127497306#3_0" arrivalPos="463.62" arrivalSpeed="26.80" duration="117.00" routeLength="511.63" waitingTime="85.00" waitingCount="2" stopTime="0.00" timeLoss="97.95" rerouteNo="1" devices="tripinfo_veh21 routing_veh21" vType="veh_passenger@veh21" speedFactor="1.00" vaporized=""/>
    <tripinfo id="veh13" depart="58.00" departLane="123936943#0_0" departPos="5.10" departSpeed="14.92" departDelay="-0.77" arrival="212.00" arrivalLane="127497306#3_1" arrivalPos="463.62" arrivalSpeed="27.58" duration="154.00" routeLength="752.57" waitingTime="78.00" waitingCount="3" stopTime="0.00" timeLoss="123.07" rerouteNo="1" devices="tripinfo_veh13 routing_veh13" vType="veh_passenger@veh13" speedFactor="1.00" vaporized=""/>
    <tripinfo id="veh17" depart="76.00" departLane="123936943#0_0" departPos="5.10" departSpeed="14.92" departDelay="-0.85" arrival="212.00" arrivalLane="127497306#3_2" arrivalPos="463.62" arrivalSpeed="27.40" duration="136.00" routeLength="753.31" waitingTime="77.00" waitingCount="2" stopTime="0.00" timeLoss="105.12" rerouteNo="1" devices="tripinfo_veh17 routing_veh17" vType="veh_passenger@veh17" speedFactor="1.00" vaporized=""/>
    <tripinfo id="veh20" depart="90.00" departLane="665146713_0" departPos="5.10" departSpeed="0.00" departDelay="-0.41" arrival="214.00" arrivalLane="127497306#3_2" arrivalPos="463.62" arrivalSpeed="26.88" duration="124.00" routeLength="686.52" waitingTime="63.00" waitingCount="1" stopTime="0.00" timeLoss="94.07" rerouteNo="1" devices="tripinfo_veh20 routing_veh20" vType="veh_passenger@veh20" speedFactor="1.00" vaporized=""/>
    <tripinfo id="veh33" depart="187.00" departLane="127497306#0_0" departPos="5.10" departSpeed="0.00" departDelay="37.83" arrival="214.00" arrivalLane="127497306#3_0" arrivalPos="463.62" arrivalSpeed="26.55" duration="27.00" routeLength="511.63" waitingTime="0.00" waitingCount="0" stopTime="0.00" timeLoss="8.15" rerouteNo="1" devices="tripinfo_veh33 routing_veh33" vType="veh_passenger@veh33" speedFactor="1.00" vaporized=""/>
    <tripinfo id="veh40" depart="180.00" departLane="665146709_0" departPos="5.10" departSpeed="0.00" departDelay="-0.82" arrival="216.00" arrivalLane="665146714#4_0" arrivalPos="421.36" arrivalSpeed="20.92" duration="36.00" routeLength="607.70" waitingTime="0.00" waitingCount="0" stopTime="0.00" timeLoss="7.40" rerouteNo="1" devices="tripinfo_veh40 routing_veh40" vType="veh_passenger@veh40" speedFactor="1.00" vaporized=""/>
    <tripinfo id="veh10" depart="45.00" departLane="123936943#0_0" departPos="5.10" departSpeed="14.92" departDelay="-0.20" arrival="217.00" arrivalLane="127497306#3_2" arrivalPos="463.62" arrivalSpeed="27.12" duration="172.00" routeLength="752.57" waitingTime="92.00" waitingCount="3" stopTime="0.00" timeLoss="141.11" rerouteNo="1" devices="tripinfo_veh10 routing_veh10" vType="veh_passenger@veh10" speedFactor="1.00" vaporized=""/>
    <tripinfo id="veh22" depart="99.00" departLane="-221348491#0_0" departPos="0.11" departSpeed="0.00" departDelay="-0.45" arrival="217.00" arrivalLane="127497306#3_0" arrivalPos="463.62" arrivalSpeed="27.78" duration="118.00" routeLength="578.83" waitingTime="81.00" waitingCount="1" stopTime="0.00" timeLoss="94.03" rerouteNo="1" devices="tripinfo_veh22 routing_veh22" vType="veh_passenger@veh22" speedFactor="1.00" vaporized=""/>
    <tripinfo id="veh4" depart="18.00" departLane="77856541#0_0" departPos="5.10" departSpeed="22.89" departDelay="-0.08" arrival="219.00" arrivalLane="127497306#3_2" arrivalPos="463.62" arrivalSpeed="26.70" duration="201.00" routeLength="805.74" waitingTime="136.00" waitingCount="2" stopTime="0.00" timeLoss="166.28" rerouteNo="1" devices="tripinfo_veh4 routing_veh4" vType="veh_passenger@veh4" speedFactor="1.00" vaporized=""/>
    <tripinfo id="veh26" depart="117.00" departLane="-665146715_0" departPos="5.10" departSpeed="12.74" departDelay="-0.53" arrival="219.00" arrivalLane="127497306#3_0" arrivalPos="463.62" arrivalSpeed="26.64" duration="102.00" routeLength="629.52" waitingTime="56.00" waitingCount="1" stopTime="0.00" timeLoss="74.46" rerouteNo="1" devices="tripinfo_veh26 routing_veh26" vType="veh_passenger@veh26" speedFactor="1.00" vaporized=""/>
    <tripinfo id="bus1" depart="60.00" departLane="-23559783_1" departPos="12.10" departSpeed="17.36" departDelay="-0.27" arrival="247.00" arrivalLane="665146714#4_0" arrivalPos="421.36" arrivalSpeed="22.12" duration="187.00" routeLength="779.63" waitingTime="103.00" waitingCount="3" stopTime="0.00" timeLoss="148.56" rerouteNo="1" devices="tripinfo_bus1 routing_bus1" vType="bus_bus@bus1" speedFactor="1.00" vaporized=""/>
    <tripinfo id="veh19" depart="85.00" departLane="-23559783_1" departPos="5.10" departSpeed="16.58" departDelay="-0.89" arrival="249.00" arrivalLane="665146714#4_0" arrivalPos="421.36" arrivalSpeed="21.47" duration="164.00" routeLength="786.63" waitingTime="75.00" waitingCount="2" stopTime="0.00" timeLoss="126.25" rerouteNo="1" devices="tripinfo_veh19 routing_veh19" vType="veh_passenger@veh19" speedFactor="1.00" vaporized=""/>
    <tripinfo id="veh34" depart="153.00" departLane="45014977_0" departPos="0.20" departSpeed="0.00" departDelay="-0.69" arrival="254.00" arrivalLane="665146714#4_0" arrivalPos="421.36" arrivalSpeed="21.47" duration="101.00" routeLength="763.12" waitingTime="45.00" waitingCount="1" stopTime="0.00" timeLoss="62.68" rerouteNo="1" devices="tripinfo_veh34 routing_veh34" vType="veh_passenger@veh34" speedFactor="1.00" vaporized=""/>
    <tripinfo id="veh56" depart="253.00" departLane="-665146715_0" departPos="5.10" departSpeed="12.49" departDelay="-0.14" arrival="287.00" arrivalLane="665146714#4_0" arrivalPos="421.36" arrivalSpeed="22.02" duration="34.00" routeLength="545.78" waitingTime="0.00" waitingCount="0" stopTime="0.00" timeLoss="5.23" rerouteNo="1" devices="tripinfo_veh56 routing_veh56" vType="veh_passenger@veh56" speedFactor="1.00" vaporized=""/>
    <tripinfo id="veh57" depart="257.00" departLane="221348491#0_0" departPos="0.10" departSpeed="0.00" departDelay="-0.66" arrival="289.00" arrivalLane="665146714#4_0" arrivalPos="421.36" arrivalSpeed="21.81" duration="32.00" routeLength="522.62" waitingTime="0.00" waitingCount="0" stopTime="0.00" timeLoss="7.34" rerouteNo="1" devices="tripinfo_veh57 routing_veh57" vType="veh_passenger@veh57" speedFactor="1.00" vaporized=""/>
    <tripinfo id="veh32" depart="144.00" departLane="77856541#0_0" departPos="5.10" departSpeed="22.33" departDelay="-0.65" arrival="302.00" arrivalLane="99952620#1_0" arrivalPos="63.37" arrivalSpeed="20.10" duration="158.00" routeLength="357.62" waitingTime="123.00" waitingCount="2" stopTime="0.00" timeLoss="142.40" rerouteNo="1" devices="tripinfo_veh32 routing_veh32" vType="veh_passenger@veh32" speedFactor="1.00" vaporized=""/>
    <tripinfo id="veh29" depart="131.00" departLane="665146712_0" departPos="1.12" departSpeed="0.00" departDelay="-0.09" arrival="336.00" arrivalLane="127497306#3_0" arrivalPos="463.62" arrivalSpeed="26.95" duration="205.00" routeLength="720.34" waitingTime="142.00" waitingCount="2" stopTime="0.00" timeLoss="173.88" rerouteNo="1" devices="tripinfo_veh29 routing_veh29" vType="veh_passenger@veh29" speedFactor="1.00" vaporized=""/>
    <tripinfo id="veh38" depart="171.00" departLane="585506249#0_1" departPos="5.10" departSpeed="30.62" departDelay="-0.78" arrival="336.00" arrivalLane="127497306#3_1" arrivalPos="463.62" arrivalSpeed="27.26" duration="165.00" routeLength="685.96" waitingTime="114.00" waitingCount="2" stopTime="0.00" timeLoss="138.85" rerouteNo="1" devices="tripinfo_veh38 routing_veh38" vType="veh_passenger@veh38" speedFactor="1.00" vaporized=""/>
    <tripinfo id="veh8" depart="36.00" departLane="-23559783_1" departPos="5.10" departSpeed="22.88" departDelay="-0.16" arrival="337.00" arrivalLane="127497306#3_1" arrivalPos="463.62" arrivalSpeed="26.62" duration="301.00" routeLength="791.24" waitingTime="235.00" waitingCount="3" stopTime="0.00" timeLoss="267.87" rerouteNo="1" devices="tripinfo_veh8 routing_veh8" vType="veh_passenger@veh8" speedFactor="1.00" vaporized=""/>
    <tripinfo id="veh42" depart="189.00" departLane="585506249#0_1" departPos="5.10" departSpeed="15.64" departDelay="-0.86" arrival="339.00" arrivalLane="127497306#3_1" arrivalPos="463.62" arrivalSpeed="26.63" duration="150.00" routeLength="685.96" waitingTime="90.00" waitingCount="2" stopTime="0.00" timeLoss="124.10" rerouteNo="1" devices="tripinfo_veh42 routing_veh42" vType="veh_passenger@veh42" speedFactor="1.00" vaporized=""/>
    <tripinfo id="veh43" depart="194.00" departLane="585506249#0_1" departPos="5.10" departSpeed="26.18" departDelay="-0.38" arrival="339.00" arrivalLane="127497306#3_0" arrivalPos="463.62" arrivalSpeed="27.10" duration="145.00" routeLength="685.96" waitingTime="76.00" waitingCount="1" stopTime="0.00" timeLoss="118.85" rerouteNo="1" devices="tripinfo_veh43 routing_veh43" vType="veh_passenger@veh43" speedFactor="1.00" vaporized=""/>
    <tripinfo id="veh9" depart="40.00" departLane="-23559783_1" departPos="5.10" departSpeed="20.84" departDelay="-0.68" arrival="340.00" arrivalLane="127497306#3_2" arrivalPos="463.62" arrivalSpeed="27.73" duration="300.00" routeLength="791.24" waitingTime="219.00" waitingCount="3" stopTime="0.00" timeLoss="265.95" rerouteNo="1" devices="tripinfo_veh9 routing_veh9" vType="veh_passenger@veh9" speedFactor="1.00" vaporized=""/>
    <tripinfo id="veh67" depart="315.00" departLane="127497306#0_0" departPos="5.10" departSpeed="0.00" departDelay="12.13" arrival="341.00" arrivalLane="127497306#3_0" arrivalPos="463.62" arrivalSpeed="26.86" duration="26.00" routeLength="511.63" waitingTime="0.00" waitingCount="0" stopTime="0.00" timeLoss="6.85" rerouteNo="1" devices="tripinfo_veh67 routing_veh67" vType="veh_passenger@veh67" speedFactor="1.00" vaporized=""/>
    <tripinfo id="veh45" depart="203.00" departLane="585506249#0_1" departPos="5.10" departSpeed="29.96" departDelay="-0.42" arrival="342.00" arrivalLane="127497306#3_1" arrivalPos="463.62" arrivalSpeed="26.60" duration="139.00" routeLength="685.96" waitingTime="77.00" waitingCount="1" stopTime="0.00" timeLoss="112.99" rerouteNo="1" devices="tripinfo_veh45 routing_veh45" vType="veh_passenger@veh45" speedFactor="1.00" vaporized=""/>
    <tripinfo id="veh27" depart="122.00" departLane="665146708_3" departPos="5.10" departSpeed="0.00" departDelay="-0.05" arrival="343.00" arrivalLane="127497306#3_2" arrivalPos="463.62" arrivalSpeed="27.22" duration="221.00" routeLength="744.73" waitingTime="135.00" waitingCount="3" stopTime="0.00" timeLoss="188.64" rerouteNo="1" devices="tripinfo_veh27 routing_veh27" vType="veh_passenger@veh27" speedFactor="1.00" vaporized=""/>
    <tripinfo id="veh28" depart="126.00" departLane="123936943#0_0" departPos="5.10" departSpeed="14.92" departDelay="-0.57" arrival="345.00" arrivalLane="127497306#3_2" arrivalPos="463.62" arrivalSpeed="26.71" duration="219.00" routeLength="753.31" waitingTime="150.00" waitingCount="2" stopTime="0.00" timeLoss="188.57" rerouteNo="1" devices="tripinfo_veh28 routing_veh28" vType="veh_passenger@veh28" speedFactor="1.00" vaporized=""/>
    <tripinfo id="veh55" depart="248.00" departLane="585506249#0_1" departPos="5.10" departSpeed="27.67" departDelay="-0.62" arrival="345.00" arrivalLane="127497306#3_1" arrivalPos="463.62" arrivalSpeed="27.25" duration="97.00" routeLength="685.96" waitingTime="50.00" waitingCount="1" stopTime="0.00" timeLoss="70.78" rerouteNo="1" devices="tripinfo_veh55 routing_veh55" vType="veh_passenger@veh55" speedFactor="1.00" vaporized=""/>
    <tripinfo id="veh58" depart="262.00" departLane="585506249#0_1" departPos="5.10" departSpeed="15.64" departDelay="-0.19" arrival="347.00" arrivalLane="127497306#3_1" arrivalPos="463.62" arrivalSpeed="27.08" duration="85.00" routeLength="685.96" waitingTime="37.00" waitingCount="1" stopTime="0.00" timeLoss="58.99" rerouteNo="1" devices="tripinfo_veh58 routing_veh58" vType="veh_passenger@veh58" speedFactor="1.00" vaporized=""/>
    <tripinfo id="veh31" depart="140.00" departLane="123936943#0_0" departPos="5.10" departSpeed="14.92" departDelay="-0.13" arrival="348.00" arrivalLane="127497306#3_2" arrivalPos="463.62" arrivalSpeed="27.65" duration="208.00" routeLength="752.57" waitingTime="136.00" waitingCount="4" stopTime="0.00" timeLoss="176.61" rerouteNo="1" devices="tripinfo_veh31 routing_veh31" vType="veh_passenger@veh31" speedFactor="1.00" vaporized=""/>
    <tripinfo id="veh59" depart="266.00" departLane="585506249#0_1" departPos="5.10" departSpeed="26.93" departDelay="-0.71" arrival="349.00" arrivalLane="127497306#3_1" arrivalPos="463.62" arrivalSpeed="27.03" duration="83.00" routeLength="685.96" waitingTime="31.00" waitingCount="1" stopTime="0.00" timeLoss="57.28" rerouteNo="1" devices="tripinfo_veh59 routing_veh59" vType="veh_passenger@veh59" speedFactor="1.00" vaporized=""/>
    <tripinfo id="veh23" depart="103.00" departLane="123936943#0_0" departPos="5.10" departSpeed="14.92" departDelay="-0.97" arrival="350.00" arrivalLane="127497306#3_2" arrivalPos="463.62" arrivalSpeed="27.00" duration="247.00" routeLength="752.57" waitingTime="171.00" waitingCount="5" stopTime="0.00" timeLoss="216.38" rerouteNo="1" devices="tripinfo_veh23 routing_veh23" vType="veh_passenger@veh23" speedFactor="1.00" vaporized=""/>
    <tripinfo id="veh64" depart="289.00" departLane="585506249#0_1" departPos="5.10" departSpeed="26.05" departDelay="-0.31" arrival="352.00" arrivalLane="127497306#3_1" arrivalPos="463.62" arrivalSpeed="27.77" duration="63.00" routeLength="685.96" waitingTime="17.00" waitingCount="1" stopTime="0.00" timeLoss="36.91" rerouteNo="1" devices="tripinfo_veh64 routing_veh64" vType="veh_passenger@veh64" speedFactor="1.00" vaporized=""/>
    <tripinfo id="veh44" depart="198.00" departLane="123936943#0_0" departPos="5.10" departSpeed="12.56" departDelay="-0.90" arrival="353.00" arrivalLane="127497306#3_2" arrivalPos="463.62" arrivalSpeed="27.07" duration="155.00" routeLength="752.57" waitingTime="71.00" waitingCount="6" stopTime="0.00" timeLoss="124.00" rerouteNo="1" devices="tripinfo_veh44 routing_veh44" vType="veh_passenger@veh44" speedFactor="1.00" vaporized=""/>
    <tripinfo id="veh65" depart="293.00" departLane="585506249#0_1" departPos="5.10" departSpeed="24.51" departDelay="-0.83" arrival="354.00" arrivalLane="127497306#3_1" arrivalPos="463.62" arrivalSpeed="27.21" duration="61.00" routeLength="685.96" waitingTime="14.00" waitingCount="1" stopTime="0.00" timeLoss="35.19" rerouteNo="1" devices="tripinfo_veh65 routing_veh65" vType="veh_passenger@veh65" speedFactor="1.00" vaporized=""/>
    <tripinfo id="veh50" depart="226.00" departLane="600437351_0" departPos="5.10" departSpeed="0.00" departDelay="-0.02" arrival="355.00" arrivalLane="127497306#3_2" arrivalPos="463.62" arrivalSpeed="27.76" duration="129.00" routeLength="682.32" waitingTime="62.00" waitingCount="1" stopTime="0.00" timeLoss="101.33" rerouteNo="1" devices="tripinfo_veh50 routing_veh50" vType="veh_passenger@veh50" speedFactor="1.00" vaporized=""/>
    <tripinfo id="veh70" depart="316.00" departLane="585506249#0_1" departPos="5.10" departSpeed="28.42" departDelay="-0.43" arrival="357.00" arrivalLane="127497306#3_1" arrivalPos="463.62" arrivalSpeed="26.92" duration="41.00" routeLength="685.96" waitingTime="0.00" waitingCount="0" stopTime="0.00" timeLoss="15.09" rerouteNo="1" devices="tripinfo_veh70 routing_veh70" vType="veh_passenger@veh70" speedFactor="1.00" vaporized=""/>
    <tripinfo id="veh25" depart="113.00" departLane="-23559783_1" departPos="5.10" departSpeed="14.70" departDelay="-0.01" arrival="358.00" arrivalLane="127497306#3_2" arrivalPos="463.62" arrivalSpeed="26.64" duration="245.00" routeLength="791.24" waitingTime="173.00" waitingCount="3" stopTime="0.00" timeLoss="210.81" rerouteNo="1" devices="tripinfo_veh25 routing_veh25" vType="veh_passenger@veh25" speedFactor="1.00" vaporized=""/>
    <tripinfo id="veh36" depart="162.00" departLane="-23559783_1" departPos="5.10" departSpeed="21.26" departDelay="-0.74" arrival="360.00" arrivalLane="127497306#3_2" arrivalPos="463.62" arrivalSpeed="27.06" duration="198.00" routeLength="791.24" waitingTime="127.00" waitingCount="2" stopTime="0.00" timeLoss="165.20" rerouteNo="1" devices="tripinfo_veh36 routing_veh36" vType="veh_passenger@veh36" speedFactor="1.00" vaporized=""/>
    <tripinfo id="veh73" depart="329.00" departLane="-665146715_0" departPos="5.10" departSpeed="14.66" departDelay="-0.99" arrival="362.00" arrivalLane="665146714#4_0" arrivalPos="421.36" arrivalSpeed="21.47" duration="33.00" routeLength="545.78" waitingTime="0.00" waitingCount="0" stopTime="0.00" timeLoss="5.01" rerouteNo="1" devices="tripinfo_veh73 routing_veh73" vType="veh_passenger@veh73" speedFactor="1.00" vaporized=""/>
    <tripinfo id="veh39" depart="176.00" departLane="-23559783_1" departPos="5.10" departSpeed="19.76" departDelay="-0.30" arrival="363.00" arrivalLane="127497306#3_2" arrivalPos="463.62" arrivalSpeed="27.14" duration="187.00" routeLength="791.24" waitingTime="112.00" waitingCount="2" stopTime="0.00" timeLoss="153.06" rerouteNo="1" devices="tripinfo_veh39 routing_veh39" vType="veh_passenger@veh39" speedFactor="1.00" vaporized=""/>
    <tripinfo id="veh51" depart="230.00" departLane="-23559783_1" departPos="5.10" departSpeed="18.26" departDelay="-0.54" arrival="366.00" arrivalLane="127497306#3_2" arrivalPos="463.62" arrivalSpeed="26.55" duration="136.00" routeLength="791.24" waitingTime="56.00" waitingCount="2" stopTime="0.00" timeLoss="103.65" rerouteNo="1" devices="tripinfo_veh51 routing_veh51" vType="veh_passenger@veh51" speedFactor="1.00" vaporized=""/>
    <tripinfo id="veh41" depart="185.00" departLane="665146708_3" departPos="5.10" departSpeed="0.00" departDelay="-0.34" arrival="368.00" arrivalLane="127497306#3_2" arrivalPos="463.62" arrivalSpeed="27.17" duration="183.00" routeLength="744.73" waitingTime="111.00" waitingCount="2" stopTime="0.00" timeLoss="150.83" rerouteNo="1" devices="tripinfo_veh41 routing_veh41" vType="veh_passenger@veh41" speedFactor="1.00" vaporized=""/>
    <tripinfo id="veh48" depart="216.00" departLane="665146708_3" departPos="5.10" departSpeed="0.00" departDelay="-0.98" arrival="371.00" arrivalLane="127497306#3_2" arrivalPos="463.62" arrivalSpeed="27.46" duration="155.00" routeLength="744.73" waitingTime="73.00" waitingCount="2" stopTime="0.00" timeLoss="122.27" rerouteNo="1" devices="tripinfo_veh48 routing_veh48" vType="veh_passenger@veh48" speedFactor="1.00" vaporized=""/>
    <tripinfo id="veh66" depart="298.00" departLane="-665146714#5_0" departPos="5.10" departSpeed="20.15" departDelay="-0.35" arrival="372.00" arrivalLane="-665146714#2_0" arrivalPos="12.50" arrivalSpeed="5.06" duration="74.00" routeLength="456.07" waitingTime="41.00" waitingCount="1" stopTime="0.00" timeLoss="51.15" rerouteNo="1" devices="tripinfo_veh66 routing_veh66" vType="veh_passenger" speedFactor="0.91" vaporized=""/>
    <tripinfo id="veh76" depart="343.00" departLane="585506249#0_0" departPos="5.10" departSpeed="28.68" departDelay="-0.55" arrival="378.00" arrivalLane="665146714#4_0" arrivalPos="421.36" arrivalSpeed="21.24" duration="35.00" routeLength="646.87" waitingTime="0.00" waitingCount="0" stopTime="0.00" timeLoss="5.04" rerouteNo="1" devices="tripinfo_veh76 routing_veh76" vType="veh_passenger@veh76" speedFactor="1.00" vaporized=""/>
    <tripinfo id="veh74" depart="334.00" departLane="585506249#0_1" departPos="5.10" departSpeed="15.64" departDelay="-0.51" arrival="397.00" arrivalLane="-77856541#0_0" arrivalPos="105.43" arrivalSpeed="21.06" duration="63.00" routeLength="352.98" waitingTime="29.00" waitingCount="1" stopTime="0.00" timeLoss="46.99" rerouteNo="1" devices="tripinfo_veh74 routing_veh74" vType="veh_passenger@veh74" speedFactor="1.00" vaporized=""/>
    <tripinfo id="bus3" depart="180.00" departLane="-665146714#5_0" departPos="12.10" departSpeed="22.22" departDelay="-0.82" arrival="405.00" arrivalLane="-77856541#0_0" arrivalPos="105.43" arrivalSpeed="16.56" duration="225.00" routeLength="755.32" waitingTime="149.00" waitingCount="4" stopTime="0.00" timeLoss="189.01" rerouteNo="1" devices="tripinfo_bus3 routing_bus3" vType="bus_bus@bus3" speedFactor="1.00" vaporized=""/>
    <tripinfo id="veh85" depart="384.00" departLane="127497306#2_0" departPos="5.10" departSpeed="0.00" departDelay="-0.24" arrival="409.00" arrivalLane="127497306#3_0" arrivalPos="463.62" arrivalSpeed="26.68" duration="25.00" routeLength="486.91" waitingTime="0.00" waitingCount="0" stopTime="0.00" timeLoss="6.55" rerouteNo="0" devices="tripinfo_veh85 routing_veh85" vType="veh_passenger@veh85" speedFactor="1.00" vaporized=""/>
    <tripinfo id="veh78" depart="352.00" departLane="123936943#0_0" departPos="5.10" departSpeed="12.56" departDelay="-0.59" arrival="427.00" arrivalLane="665146714#4_0" arrivalPos="421.36" arrivalSpeed="22.03" duration="75.00" routeLength="747.79" waitingTime="10.00" waitingCount="1" stopTime="0.00" timeLoss="40.67" rerouteNo="1" devices="tripinfo_veh78 routing_veh78" vType="veh_passenger@veh78" speedFactor="1.00" vaporized=""/>
    <tripinfo id="veh83" depart="375.00" departLane="123936943#0_0" departPos="5.10" departSpeed="15.30" departDelay="-0.20" arrival="438.00" arrivalLane="665146714#4_0" arrivalPos="421.36" arrivalSpeed="21.44" duration="63.00" routeLength="747.79" waitingTime="4.00" waitingCount="2" stopTime="0.00" timeLoss="28.05" rerouteNo="1" devices="tripinfo_veh83 routing_veh83" vType="veh_passenger@veh83" speedFactor="1.00" vaporized=""/>
    <tripinfo id="veh30" depart="135.00" departLane="-665146714#5_0" departPos="5.10" departSpeed="26.19" departDelay="-0.61" arrival="450.00" arrivalLane="23559783_0" arrivalPos="74.92" arrivalSpeed="18.65" duration="315.00" routeLength="846.50" waitingTime="227.00" waitingCount="4" stopTime="0.00" timeLoss="278.55" rerouteNo="1" devices="tripinfo_veh30 routing_veh30" vType="veh_passenger@veh30" speedFactor="1.00" vaporized=""/>